# vtk DataFile Version 2.0
2D Unstructured Mesh
ASCII
DATASET UNSTRUCTURED_GRID
POINTS 20 float
0.0 0.0 0.0
4.0 0.0 0.0
4.0 3.0 0.0
0.0 3.0 0.0
0.9999999999976438 0.0 0.0
1.999999999994768 0.0 0.0
2.999999999997363 0.0 0.0
4.0 0.9999999999960252 0.0
4.0 1.999999999996162 0.0
3.000000000001388 3.0 0.0
2.000000000008238 3.0 0.0
1.000000000004162 3.0 0.0
0.0 2.000000000001938 0.0
0.0 1.000000000002804 0.0
0.9999999999998165 1.000000000001109 0.0
1.00000000000199 2.000000000000494 0.0
1.999999999999258 0.9999999999994142 0.0
2.000000000003748 1.99999999999905 0.0
2.999999999998704 0.9999999999977199 0.0
3.000000000000046 1.999999999997606 0.0
CELLS 12 60
4 0 4 14 13
4 13 14 15 12
4 12 15 11 3
4 4 5 16 14
4 14 16 17 15
4 15 17 10 11
4 5 6 18 16
4 16 18 19 17
4 17 19 9 10
4 6 1 7 18
4 18 7 8 19
4 19 8 2 9
CELL_TYPES 12
7
7
7
7
7
7
7
7
7
7
7
7
CELL_DATA 12
SCALARS zb_cell float 1
LOOKUP_TABLE default
0.03246524673579717
0.03246524673585798
0.03246524673591573
0.08824969025835938
0.08824969025851356
0.08824969025866493
0.08824969025857506
0.08824969025843925
0.0882496902583062
0.032465246735889686
0.03246524673584916
0.032465246735811616
