# vtk DataFile Version 2.0
2D Unstructured Mesh
ASCII
DATASET UNSTRUCTURED_GRID
POINTS 202 float
0.0 0.0 0.0
25.0 0.0 0.0
25.0 1.0 0.0
0.0 1.0 0.0
0.2499999999990107 0.0 0.0
0.4999999999980383 0.0 0.0
0.7499999999970555 0.0 0.0
0.9999999999960119 0.0 0.0
1.249999999994936 0.0 0.0
1.49999999999389 0.0 0.0
1.749999999992954 0.0 0.0
1.999999999992098 0.0 0.0
2.249999999991244 0.0 0.0
2.49999999999039 0.0 0.0
2.749999999989536 0.0 0.0
2.999999999988651 0.0 0.0
3.249999999987575 0.0 0.0
3.499999999986309 0.0 0.0
3.749999999985011 0.0 0.0
3.999999999983713 0.0 0.0
4.249999999982415 0.0 0.0
4.499999999981117 0.0 0.0
4.749999999979819 0.0 0.0
4.999999999978521 0.0 0.0
5.249999999977223 0.0 0.0
5.499999999975926 0.0 0.0
5.749999999974627 0.0 0.0
5.99999999997333 0.0 0.0
6.249999999972031 0.0 0.0
6.499999999970735 0.0 0.0
6.749999999969438 0.0 0.0
6.999999999968141 0.0 0.0
7.249999999966843 0.0 0.0
7.499999999965547 0.0 0.0
7.749999999964249 0.0 0.0
7.999999999963285 0.0 0.0
8.249999999962863 0.0 0.046874999993501115
8.499999999962453 0.0 0.08749999999436797
8.749999999962045 0.0 0.12187499999525558
8.999999999961636 0.0 0.14999999999616362
9.249999999961227 0.0 0.17187499999709208
9.499999999960819 0.0 0.18749999999804096
9.749999999960409 0.0 0.19687499999901023
9.99999999996 0.0 0.2
10.24999999995959 0.0 0.19687500000101027
10.49999999995918 0.0 0.18750000000204103
10.74999999995877 0.0 0.1718750000030922
10.99999999995837 0.0 0.15000000000416308
11.24999999995796 0.0 0.12187500000525492
11.49999999995755 0.0 0.08750000000636744
11.74999999995714 0.0 0.0468750000075005
11.99999999995673 0.0 8.654049699075017e-12
12.24999999995632 0.0 0.0
12.49999999995591 0.0 0.0
12.7499999999555 0.0 0.0
12.9999999999551 0.0 0.0
13.24999999995468 0.0 0.0
13.49999999995428 0.0 0.0
13.74999999995387 0.0 0.0
13.99999999995346 0.0 0.0
14.24999999995305 0.0 0.0
14.49999999995264 0.0 0.0
14.74999999995223 0.0 0.0
14.99999999995182 0.0 0.0
15.24999999995142 0.0 0.0
15.49999999995101 0.0 0.0
15.7499999999506 0.0 0.0
15.99999999995083 0.0 0.0
16.24999999995214 0.0 0.0
16.49999999995351 0.0 0.0
16.74999999995487 0.0 0.0
16.99999999995624 0.0 0.0
17.24999999995761 0.0 0.0
17.49999999995898 0.0 0.0
17.74999999996034 0.0 0.0
17.99999999996171 0.0 0.0
18.24999999996308 0.0 0.0
18.49999999996444 0.0 0.0
18.74999999996581 0.0 0.0
18.99999999996718 0.0 0.0
19.24999999996855 0.0 0.0
19.49999999996991 0.0 0.0
19.74999999997128 0.0 0.0
19.99999999997265 0.0 0.0
20.24999999997402 0.0 0.0
20.49999999997539 0.0 0.0
20.74999999997675 0.0 0.0
20.99999999997812 0.0 0.0
21.24999999997949 0.0 0.0
21.49999999998086 0.0 0.0
21.74999999998223 0.0 0.0
21.99999999998359 0.0 0.0
22.24999999998496 0.0 0.0
22.49999999998633 0.0 0.0
22.74999999998769 0.0 0.0
22.99999999998906 0.0 0.0
23.24999999999043 0.0 0.0
23.49999999999179 0.0 0.0
23.74999999999316 0.0 0.0
23.99999999999453 0.0 0.0
24.2499999999959 0.0 0.0
24.49999999999726 0.0 0.0
24.74999999999863 0.0 0.0
24.75000000000178 1.0 0.0
24.50000000000355 1.0 0.0
24.25000000000533 1.0 0.0
24.00000000000711 1.0 0.0
23.75000000000888 1.0 0.0
23.50000000001066 1.0 0.0
23.25000000001243 1.0 0.0
23.00000000001421 1.0 0.0
22.75000000001599 1.0 0.0
22.50000000001776 1.0 0.0
22.25000000001954 1.0 0.0
22.00000000002132 1.0 0.0
21.75000000002309 1.0 0.0
21.50000000002487 1.0 0.0
21.25000000002665 1.0 0.0
21.00000000002842 1.0 0.0
20.7500000000302 1.0 0.0
20.50000000003197 1.0 0.0
20.25000000003375 1.0 0.0
20.00000000003553 1.0 0.0
19.7500000000373 1.0 0.0
19.50000000003908 1.0 0.0
19.25000000004086 1.0 0.0
19.00000000004263 1.0 0.0
18.75000000004441 1.0 0.0
18.50000000004619 1.0 0.0
18.25000000004796 1.0 0.0
18.00000000004974 1.0 0.0
17.75000000005151 1.0 0.0
17.50000000005329 1.0 0.0
17.25000000005507 1.0 0.0
17.00000000005684 1.0 0.0
16.75000000005862 1.0 0.0
16.5000000000604 1.0 0.0
16.25000000006217 1.0 0.0
16.00000000006389 1.0 0.0
15.75000000006453 1.0 0.0
15.50000000006453 1.0 0.0
15.25000000006453 1.0 0.0
15.00000000006453 1.0 0.0
14.75000000006453 1.0 0.0
14.50000000006453 1.0 0.0
14.25000000006453 1.0 0.0
14.00000000006453 1.0 0.0
13.75000000006453 1.0 0.0
13.50000000006453 1.0 0.0
13.25000000006453 1.0 0.0
13.00000000006453 1.0 0.0
12.75000000006453 1.0 0.0
12.50000000006453 1.0 0.0
12.25000000006453 1.0 0.0
12.00000000006453 1.0 0.0
11.75000000006453 1.0 0.04687499998870731
11.50000000006453 1.0 0.08749999999032054
11.25000000006453 1.0 0.1218749999919338
11.00000000006453 1.0 0.14999999999354705
10.75000000006453 1.0 0.1718749999951603
10.50000000006453 1.0 0.18749999999677353
10.25000000006453 1.0 0.19687499999838676
10.00000000006453 1.0 0.2
9.750000000064531 1.0 0.1968750000016133
9.500000000064531 1.0 0.18750000000322659
9.250000000064531 1.0 0.17187500000483988
9.000000000063894 1.0 0.15000000000638938
8.750000000062172 1.0 0.12187500000777157
8.500000000060396 1.0 0.08750000000905943
8.25000000005862 1.0 0.04687500001025846
8.000000000056843 1.0 1.1368683772161603e-11
7.750000000055067 1.0 0.0
7.500000000053291 1.0 0.0
7.250000000051511 1.0 0.0
7.000000000049734 1.0 0.0
6.750000000047962 1.0 0.0
6.500000000046185 1.0 0.0
6.250000000044409 1.0 0.0
6.000000000042633 1.0 0.0
5.750000000040856 1.0 0.0
5.50000000003908 1.0 0.0
5.250000000037303 1.0 0.0
5.000000000035527 1.0 0.0
4.750000000033751 1.0 0.0
4.500000000031974 1.0 0.0
4.250000000030198 1.0 0.0
4.000000000028418 1.0 0.0
3.750000000026642 1.0 0.0
3.500000000024865 1.0 0.0
3.250000000023089 1.0 0.0
3.000000000021316 1.0 0.0
2.75000000001954 1.0 0.0
2.500000000017764 1.0 0.0
2.250000000015987 1.0 0.0
2.000000000014211 1.0 0.0
1.750000000012434 1.0 0.0
1.500000000010658 1.0 0.0
1.250000000008882 1.0 0.0
1.000000000007102 1.0 0.0
0.7500000000053255 1.0 0.0
0.5000000000035492 1.0 0.0
0.2500000000017728 1.0 0.0
CELLS 100 500
4 0 4 201 3
4 4 5 200 201
4 5 6 199 200
4 6 7 198 199
4 7 8 197 198
4 8 9 196 197
4 9 10 195 196
4 10 11 194 195
4 11 12 193 194
4 12 13 192 193
4 13 14 191 192
4 14 15 190 191
4 15 16 189 190
4 16 17 188 189
4 17 18 187 188
4 18 19 186 187
4 19 20 185 186
4 20 21 184 185
4 21 22 183 184
4 22 23 182 183
4 23 24 181 182
4 24 25 180 181
4 25 26 179 180
4 26 27 178 179
4 27 28 177 178
4 28 29 176 177
4 29 30 175 176
4 30 31 174 175
4 31 32 173 174
4 32 33 172 173
4 33 34 171 172
4 34 35 170 171
4 35 36 169 170
4 36 37 168 169
4 37 38 167 168
4 38 39 166 167
4 39 40 165 166
4 40 41 164 165
4 41 42 163 164
4 42 43 162 163
4 43 44 161 162
4 44 45 160 161
4 45 46 159 160
4 46 47 158 159
4 47 48 157 158
4 48 49 156 157
4 49 50 155 156
4 50 51 154 155
4 51 52 153 154
4 52 53 152 153
4 53 54 151 152
4 54 55 150 151
4 55 56 149 150
4 56 57 148 149
4 57 58 147 148
4 58 59 146 147
4 59 60 145 146
4 60 61 144 145
4 61 62 143 144
4 62 63 142 143
4 63 64 141 142
4 64 65 140 141
4 65 66 139 140
4 66 67 138 139
4 67 68 137 138
4 68 69 136 137
4 69 70 135 136
4 70 71 134 135
4 71 72 133 134
4 72 73 132 133
4 73 74 131 132
4 74 75 130 131
4 75 76 129 130
4 76 77 128 129
4 77 78 127 128
4 78 79 126 127
4 79 80 125 126
4 80 81 124 125
4 81 82 123 124
4 82 83 122 123
4 83 84 121 122
4 84 85 120 121
4 85 86 119 120
4 86 87 118 119
4 87 88 117 118
4 88 89 116 117
4 89 90 115 116
4 90 91 114 115
4 91 92 113 114
4 92 93 112 113
4 93 94 111 112
4 94 95 110 111
4 95 96 109 110
4 96 97 108 109
4 97 98 107 108
4 98 99 106 107
4 99 100 105 106
4 100 101 104 105
4 101 102 103 104
4 102 1 2 103
CELL_TYPES 100
7
7
7
7
7
7
7
7
7
7
7
7
7
7
7
7
7
7
7
7
7
7
7
7
7
7
7
7
7
7
7
7
7
7
7
7
7
7
7
7
7
7
7
7
7
7
7
7
7
7
7
7
7
7
7
7
7
7
7
7
7
7
7
7
7
7
7
7
7
7
7
7
7
7
7
7
7
7
7
7
7
7
7
7
7
7
7
7
7
7
7
7
7
7
7
7
7
7
7
7
CELL_DATA 100
SCALARS eta float 1
LOOKUP_TABLE default
0.5
0.5
0.5
0.5
0.5
0.5
0.5
0.5
0.5
0.5
0.5
0.5
0.5
0.5
0.5
0.5
0.5
0.5
0.5
0.5
0.5
0.5
0.5
0.5
0.5
0.5
0.5
0.5
0.5
0.5
0.5
0.5
0.5
0.5
0.5
0.5
0.5
0.5
0.5
0.5
0.5
0.5
0.5
0.5
0.5
0.5
0.5
0.5
0.5
0.5
0.33
0.33
0.33
0.33
0.33
0.33
0.33
0.33
0.33
0.33
0.33
0.33
0.33
0.33
0.33
0.33
0.33
0.33
0.33
0.33
0.33
0.33
0.33
0.33
0.33
0.33
0.33
0.33
0.33
0.33
0.33
0.33
0.33
0.33
0.33
0.33
0.33
0.33
0.33
0.33
0.33
0.33
0.33
0.33
0.33
0.33
0.33
0.33
0.33
0.33
SCALARS h float 1
LOOKUP_TABLE default
0.5
0.5
0.5
0.5
0.5
0.5
0.5
0.5
0.5
0.5
0.5
0.5
0.5
0.5
0.5
0.5
0.5
0.5
0.5
0.5
0.5
0.5
0.5
0.5
0.5
0.5
0.5
0.5
0.5
0.5
0.5
0.49999999999715783
0.4765624999962179
0.43281249999820326
0.39531249999838636
0.36406249999860496
0.3390624999988788
0.32031249999920014
0.30781249999952726
0.30156249999984414
0.3015625000001507
0.30781250000044713
0.32031250000073325
0.33906250000100935
0.36406250000127527
0.39531250000153084
0.43281250000177607
0.47656249999878453
0.4999999999978365
0.5
0.33
0.33
0.33
0.33
0.33
0.33
0.33
0.33
0.33
0.33
0.33
0.33
0.33
0.33
0.33
0.33
0.33
0.33
0.33
0.33
0.33
0.33
0.33
0.33
0.33
0.33
0.33
0.33
0.33
0.33
0.33
0.33
0.33
0.33
0.33
0.33
0.33
0.33
0.33
0.33
0.33
0.33
0.33
0.33
0.33
0.33
0.33
0.33
0.33
0.33
SCALARS zb_cell float 1
LOOKUP_TABLE default
0.0
0.0
0.0
0.0
0.0
0.0
0.0
0.0
0.0
0.0
0.0
0.0
0.0
0.0
0.0
0.0
0.0
0.0
0.0
0.0
0.0
0.0
0.0
0.0
0.0
0.0
0.0
0.0
0.0
0.0
0.0
2.8421709430404007e-12
0.023437500003782065
0.06718750000179674
0.10468750000161364
0.13593750000139504
0.16093750000112123
0.17968750000079986
0.19218750000047274
0.19843750000015586
0.19843749999984928
0.1921874999995529
0.17968749999926675
0.16093749999899065
0.1359374999987247
0.10468749999846917
0.06718749999822395
0.023437500001215465
2.1635124247687543e-12
0.0
0.0
0.0
0.0
0.0
0.0
0.0
0.0
0.0
0.0
0.0
0.0
0.0
0.0
0.0
0.0
0.0
0.0
0.0
0.0
0.0
0.0
0.0
0.0
0.0
0.0
0.0
0.0
0.0
0.0
0.0
0.0
0.0
0.0
0.0
0.0
0.0
0.0
0.0
0.0
0.0
0.0
0.0
0.0
0.0
0.0
0.0
0.0
0.0
0.0
0.0
