# vtk DataFile Version 2.0
2D Unstructured Mesh
ASCII
DATASET UNSTRUCTURED_GRID
POINTS 42 double
0.0 0.0 0.0
25.0 0.0 0.0
25.0 1.0 0.0
0.0 1.0 0.0
1.249999999994936 0.0 0.0
2.49999999999039 0.0 0.0
3.749999999985011 0.0 0.0
4.999999999978521 0.0 0.0
6.249999999972031 0.0 0.0
7.499999999965547 0.0 0.0
8.749999999962045 0.0 0.0
9.99999999996 0.0 0.0
11.24999999995796 0.0 0.0
12.49999999995591 0.0 0.0
13.74999999995387 0.0 0.0
14.99999999995182 0.0 0.0
16.24999999995214 0.0 0.0
17.49999999995898 0.0 0.0
18.74999999996581 0.0 0.0
19.99999999997265 0.0 0.0
21.24999999997949 0.0 0.0
22.49999999998633 0.0 0.0
23.74999999999316 0.0 0.0
23.75000000000888 1.0 0.0
22.50000000001776 1.0 0.0
21.25000000002665 1.0 0.0
20.00000000003553 1.0 0.0
18.75000000004441 1.0 0.0
17.50000000005329 1.0 0.0
16.25000000006217 1.0 0.0
15.00000000006453 1.0 0.0
13.75000000006453 1.0 0.0
12.50000000006453 1.0 0.0
11.25000000006453 1.0 0.0
10.00000000006453 1.0 0.0
8.750000000062172 1.0 0.0
7.500000000053291 1.0 0.0
6.250000000044409 1.0 0.0
5.000000000035527 1.0 0.0
3.750000000026642 1.0 0.0
2.500000000017764 1.0 0.0
1.250000000008882 1.0 0.0
CELLS 20 100
4 0 4 41 3
4 4 5 40 41
4 5 6 39 40
4 6 7 38 39
4 7 8 37 38
4 8 9 36 37
4 9 10 35 36
4 10 11 34 35
4 11 12 33 34
4 12 13 32 33
4 13 14 31 32
4 14 15 30 31
4 15 16 29 30
4 16 17 28 29
4 17 18 27 28
4 18 19 26 27
4 19 20 25 26
4 20 21 24 25
4 21 22 23 24
4 22 1 2 23
CELL_TYPES 20
7
7
7
7
7
7
7
7
7
7
7
7
7
7
7
7
7
7
7
7
CELL_DATA 20
SCALARS zb_cells double 1
LOOKUP_TABLE default
0.0
0.0
0.0
0.0
0.0
0.0
0.0
0.0
0.0
0.0
0.0
0.0
0.0
0.0
0.0
0.0
0.0
0.0
0.0
0.0
VECTORS S0 double
-0.0 -0.0 0.0
-0.0 -0.0 0.0
-0.0 -0.0 0.0
-0.0 -0.0 0.0
-0.0 -0.0 0.0
-0.0 -0.0 0.0
-0.0 -0.0 0.0
-0.0 -0.0 0.0
-0.0 -0.0 0.0
-0.0 -0.0 0.0
-0.0 -0.0 0.0
-0.0 -0.0 0.0
-0.0 -0.0 0.0
-0.0 -0.0 0.0
-0.0 -0.0 0.0
-0.0 -0.0 0.0
-0.0 -0.0 0.0
-0.0 -0.0 0.0
-0.0 -0.0 0.0
-0.0 -0.0 0.0
