# vtk DataFile Version 2.0
2D Unstructured Mesh
ASCII
DATASET UNSTRUCTURED_GRID
POINTS 6 float
0.0 0.0 0.0
1.0 0.0 0.0
1.0 1.0 0.0
0.0 1.0 0.0
2.0 0.0 0.0
2.0 1.0 0.0
CELLS 2 10
4 0 1 2 3
4 1 4 5 2
CELL_TYPES 2
7
7
CELL_DATA 2
SCALARS Pressure float 1
LOOKUP_TABLE default
1.0
2.0
SCALARS Temperature float 1
LOOKUP_TABLE default
0.1
0.2
VECTORS Velocity float
1.0 0.0 0.0
0.0 1.0 0.0
VECTORS Force float
-1.0 1.0 0.0
1.0 -1.0 0.0
